            #Ek_l1_s1              Vk_l1_s1
      -1.950946340628       -0.044658351553
      -0.336860247959        0.278037455671
      -0.052424984956        0.129598754266
      -0.004808129266        0.048688295857
       0.004788277421        0.048583985879
       0.052203607566        0.129357932590
       0.335690333500        0.277727187709
       1.953850413378       -0.049191340163
