            #Ek_l1_s1              Vk_l1_s1
      -1.924535669668       -0.409256744440
      -0.453811751336        0.097697575259
      -0.016706791736        0.008254272951
      -0.003068123543        0.004839407821
       0.002966680487        0.004814017001
       0.016633578274        0.008341687937
       0.442159713797        0.094225473156
       1.922996576178       -0.411216048797
