            #Ek_l1_s1              Vk_l1_s1
      -1.935958299487       -0.364812664206
      -0.417187249025        0.130645969101
      -0.033034347229        0.074414617575
      -0.004233277505        0.043406056964
       0.004133638206        0.043091473652
       0.032609109875        0.074291713227
       0.400876611637        0.126825189514
       1.936153851424       -0.367858143517
