            #Ek_l1_s1              Vk_l1_s1             #Ek_l2_s1              Vk_l2_s1
      -0.914617199368        0.304677337332       -2.646406494200        0.333944216781
      -0.292722698717       -0.151084633361        0.304718903489       -0.159517207709
       2.558793735290        0.326586921274        0.954273780909       -0.303682354498
