            #Ek_l1_s1              Vk_l1_s1
      -1.925379139368       -0.405548878114
      -0.456868235033        0.081979544913
      -0.019200229177        0.008923956446
      -0.003247885237        0.005164862240
       0.003327474492        0.005197899296
       0.019473809549        0.008998370240
       0.445072835576        0.078742428551
       1.923833093207       -0.407117123761
