            #Ek_l1_s1              Vk_l1_s1             #Ek_l2_s1              Vk_l2_s1
      -0.838383232785        0.305583119863       -2.627765616015        0.336195774657
      -0.225079205484       -0.147331494412        0.239007257823       -0.152655391430
       2.498131433172        0.326001982706        0.861657229084       -0.305606139035
