            #Ek_l1_s1              Vk_l1_s1
      -1.935319118540       -0.354243408942
      -0.463340014781        0.011506119000
      -0.023229742257        0.012156371307
      -0.003431271136        0.006111480956
       0.003532523879        0.006149790999
       0.023239465050        0.012066706597
       0.451139205878        0.010236465284
       1.933838283727       -0.354356212379
