            #Ek_l1_s1              Vk_l1_s1             #Ek_l1_s2              Vk_l1_s2
      -1.590548495927        0.384398946384       -3.977310302020        0.000004869258
      -0.249105098018        0.167604212110       -1.740146626580       -0.000009835492
      -0.118342380519        0.194074861725       -0.299155598851        0.101778283972
       0.284312082631        0.096642601578       -1.298586531597        0.000012483314
       1.454159107843       -0.094278358783        0.134982090702        0.233871790305
       3.929572160751       -0.000000063457        1.125558122252        0.357382174636
