            #Ek_l1_s1              Vk_l1_s1             #Ek_l1_s2              Vk_l1_s2
      -1.349470260381        0.378186408945       -3.977310301872        0.000030211568
      -0.142798427526        0.178211367699       -1.740146626596       -0.000000442257
      -0.020288318520        0.184010536668       -0.417034915942        0.106160058569
       0.398086105494        0.099836643291       -1.298586457337        0.000498030423
       1.464647152456       -0.093497975098        0.040124847351        0.231981385422
       3.929572160751       -0.000000063457        0.940441417307        0.356098351417
