            #Ek_l1_s1              Vk_l1_s1
      -1.924309047026       -0.410294381519
      -0.452868076169        0.102183651325
      -0.017044361620        0.008177150895
      -0.003132213396        0.004901489933
       0.003045412991        0.004876606301
       0.016953186197        0.008256939091
       0.441233714747        0.098711842350
       1.922770715628       -0.412292868438
