            #Ek_l1_s1              Vk_l1_s1             #Ek_l2_s1              Vk_l2_s1
      -0.198023682523        0.197168997616       -0.187830643990        0.216372027716
      -0.009325588449        0.070297844818        0.009904612790       -0.071013174181
       0.188300159608        0.216438146368        0.200465058133       -0.197248189525
