            #Ek_l1_s1              Vk_l1_s1             #Ek_l2_s1              Vk_l2_s1
      -1.264297359143        0.327674510752       -3.143450450390        0.339641668720
      -0.551529533877       -0.091530970371        0.535753687697       -0.091125233111
       2.940464210090        0.325556368701        1.284213843494       -0.331535738727
