            #Ek_l1_s1              Vk_l1_s1             #Ek_l2_s1              Vk_l2_s1
      -1.040334784434        0.302456208294       -2.654586719089        0.329181546395
      -0.377466232905       -0.164995327640        0.346848886793       -0.146386705136
       2.763558277641        0.338339623014        0.967179212168       -0.307194717513
