            #Ek_l1_s1              Vk_l1_s1             #Ek_l1_s2              Vk_l1_s2
      -1.046901299195        0.340430663338       -3.277310302048        0.000007792894
      -0.312458004069        0.241960676243       -1.040278959277       -0.021332989823
      -0.142207744095        0.154853418741       -0.326106886878        0.101988230911
       0.350601040384        0.119961051425       -0.641297127594        0.136442080219
       0.872060711342       -0.143957806165        0.175461021940        0.221497168139
       3.229572160751       -0.000000063457        0.714884912441        0.362436841859
