            #Ek_l1_s1              Vk_l1_s1             #Ek_l1_s2              Vk_l1_s2
      -0.929822851985        0.325006421823       -3.277310301247       -0.000035040296
      -0.227018589671        0.258588886782       -1.041818107026       -0.063138563329
      -0.045520800561        0.152952456263       -0.407370960481        0.093289523493
       0.442550112036        0.121162517333       -0.676792930601        0.149666563173
       0.902947228335       -0.159880058045        0.080512512406        0.221547819554
       3.229572160751       -0.000000063457        0.573908637786        0.360267926234
