            #Ek_l1_s1              Vk_l1_s1             #Ek_l1_s2              Vk_l1_s2
      -1.334168074780        0.372159365087       -3.677310301926       -0.000006182732
      -0.281235941785        0.193669925788       -1.440146625643       -0.000062955460
      -0.130290698211        0.181322882980       -0.332975393234        0.109927314656
       0.321006062291        0.105072554052       -0.997249477638        0.063599358769
       1.187541171884       -0.108872801423        0.152074446105        0.229180549707
       3.629572160751       -0.000000063457        0.933667189177        0.361058072214
