            #Ek_l1_s1              Vk_l1_s1             #Ek_l1_s2              Vk_l1_s2
      -1.162514672836        0.364056293607       -3.677310301904       -0.000035130127
      -0.204401317590        0.202981871426       -1.440146421869        0.000789214514
      -0.036043866834        0.180749532788       -0.437694457968        0.110771421169
       0.434768865406        0.109494686537       -1.000553277335       -0.082344864252
       1.204729156505       -0.113138930908        0.058195016162        0.227369810069
       3.629572160751       -0.000000063457        0.777952319391        0.362790842220
