            #Ek_l1_s1              Vk_l1_s1
      -1.927690459214       -0.394474780724
      -0.460688824998        0.053368688165
      -0.020687825284        0.009923937587
      -0.003375220095        0.005461743279
       0.003342436697        0.005458297846
       0.020848569314        0.010025610097
       0.448712830229        0.050513359522
       1.926168747823       -0.395436273081
