            #Ek_l1_s1              Vk_l1_s1
      -1.944418445939       -0.255133135965
      -0.481163918870        0.184108354738
      -0.046272207745        0.103850234202
      -0.004832861347        0.048368898035
       0.004734608983        0.048018511199
       0.045713950800        0.103525965659
       0.466717760397        0.180577992632
       1.946615736758       -0.260161777793
