            #Ek_l1_s1              Vk_l1_s1             #Ek_l2_s1              Vk_l2_s1
      -2.172694925683        0.012750204868       -0.191053034364        0.284557458569
      -0.052536902588       -0.156032987352        0.060191141068       -0.169187104794
       0.135480347257        0.261855521410        2.300663848401       -0.000405941785
