            #Ek_l1_s1              Vk_l1_s1
      -1.939747088440       -0.330899766767
      -0.421450719413        0.149196319667
      -0.040149989301        0.091140648848
      -0.004579441414        0.046283691310
       0.004467463095        0.045909974499
       0.039598183679        0.090876220578
       0.405014171046        0.145308912202
       1.940517695996       -0.334816427559
