            #Ek_l1_s1              Vk_l1_s1             #Ek_l2_s1              Vk_l2_s1
      -2.172746794217        0.005749102442       -0.277149653394        0.331737781357
      -0.005331260988       -0.108262665490       -0.005801828055       -0.081194729467
       0.342066775493        0.370257700069        2.300663079111       -0.003421382070
