            #Ek_l1_s1              Vk_l1_s1             #Ek_l1_s2              Vk_l1_s2
      -0.946901299195        0.340430663338       -3.377310302048        0.000007792894
      -0.212458004069        0.241960676243       -1.140278959277       -0.021332989823
      -0.042207744095        0.154853418741       -0.426106886878        0.101988230911
       0.450601040384        0.119961051425       -0.741297127594        0.136442080219
       0.972060711342       -0.143957806165        0.075461021940        0.221497168139
       3.329572160751       -0.000000063457        0.614884912441        0.362436841859
