            #Ek_l1_s1              Vk_l1_s1             #Ek_l1_s2              Vk_l1_s2
      -1.116890185587        0.348969474338       -3.377310301968        0.000066520567
      -0.313857430491        0.229518300964       -1.140174820299       -0.009801770983
      -0.141033950989        0.164545886552       -0.336147646901        0.107802930863
       0.350474104135        0.116996095703       -0.719094993206        0.118237735504
       0.946032112868       -0.131489299082        0.170402534027        0.223725155145
       3.329572160751       -0.000000063457        0.771392048599        0.364077714407
