            #Ek_l1_s1              Vk_l1_s1             #Ek_l1_s2              Vk_l1_s2
      -0.813705308517        0.314325545789       -2.977310301274       -0.000053260502
      -0.274153590367        0.260338686397       -0.750732280402       -0.141141759408
      -0.133493386596        0.122192678584       -0.228624329576        0.058818291039
       0.304696483381        0.122616536968       -0.427228024783        0.159425741017
       0.683215013667       -0.192435389270        0.181898110004        0.223953398718
       2.929572160751       -0.000000063457        0.599502412319        0.348456715104
