            #Ek_l1_s1              Vk_l1_s1             #Ek_l1_s2              Vk_l1_s2
      -0.647935279383        0.307588036774       -2.977310301142       -0.000103314263
      -0.158607504334        0.251358144507       -0.762424209318       -0.181414834925
      -0.030612613515        0.127010476007       -0.269686352299        0.041933713144
       0.361806848151        0.115677908399       -0.453959272848        0.150069551929
       0.722983398732       -0.215826171721        0.072491004686        0.222536851651
       2.929572160751       -0.000000063457        0.464706596678        0.340448903705
