            #Ek_l1_s1              Vk_l1_s1
      -1.950944560972       -0.045271614757
      -0.342846024891        0.238356481784
      -0.051756935439        0.126210549442
      -0.004847807743        0.048869621701
       0.004828593994        0.048793132262
       0.051610098952        0.126056131373
       0.341629463166        0.238043752320
       1.953848099533       -0.049864751966
