            #Ek_l1_s1              Vk_l1_s1
      -1.924106396893       -0.411197669329
      -0.451863860006        0.106576287540
      -0.016372029311        0.008091758991
      -0.003075620246        0.004772381122
       0.002847923816        0.004717969646
       0.016160790959        0.008198377370
       0.440252989710        0.103086376588
       1.922571402676       -0.413246937091
