            #Ek_l1_s1              Vk_l1_s1             #Ek_l1_s2              Vk_l1_s2
      -1.234168074780        0.372159365087       -3.777310301926       -0.000006182732
      -0.181235941785        0.193669925788       -1.540146625643       -0.000062955460
      -0.030290698211        0.181322882980       -0.432975393234        0.109927314656
       0.421006062291        0.105072554052       -1.097249477638        0.063599358769
       1.287541171884       -0.108872801423        0.052074446105        0.229180549707
       3.729572160751       -0.000000063457        0.833667189177        0.361058072214
