            #Ek_l1_s1              Vk_l1_s1             #Ek_l1_s2              Vk_l1_s2
      -1.459100116050        0.378521600762       -3.777310301930       -0.000001421664
      -0.283870320065        0.183968111060       -1.540146626651        0.000001320446
      -0.127590222910        0.189898708094       -0.330790287549        0.110267646310
       0.307874843236        0.101361007755       -1.098504450669       -0.015524031900
       1.269340198569       -0.106174060086        0.145800794212        0.230464337889
       3.729572160751       -0.000000063457        0.978040298108        0.356809660380
