            #Ek_l1_s1              Vk_l1_s1
      -1.950862914829       -0.051382267768
      -0.354328094245        0.224727373181
      -0.051064463290        0.123536474844
      -0.004842727460        0.048832339831
       0.004824804918        0.048766211454
       0.050943531129        0.123414341127
       0.352899358829        0.224287734184
       1.953749509619       -0.056507888745
