            #Ek_l1_s1              Vk_l1_s1
      -1.950946740271       -0.044822766977
      -0.338549119923        0.261903842279
      -0.052600928369        0.129071901592
      -0.004852746688        0.048927377104
       0.004827140139        0.048834810937
       0.052416742365        0.128866876305
       0.337371659330        0.261632031999
       1.953850779365       -0.049377165437
