            #Ek_l1_s1              Vk_l1_s1             #Ek_l2_s1              Vk_l2_s1
      -1.229002692523        0.298078392343       -2.776523101373        0.329999847823
      -0.527178991965       -0.178738027427        0.469346046178       -0.145676776238
       2.916960267683        0.342029047795        1.097948277242       -0.308679937292
