            #Ek_l1_s1              Vk_l1_s1             #Ek_l2_s1              Vk_l2_s1
      -0.316642090569        0.256302228634       -0.693810800520        0.188029282306
       0.012937832814        0.035455148772       -0.009781133001       -0.034541436863
       0.727526199469        0.188837012675        0.330970615488       -0.258857510914
