            #Ek_l1_s1              Vk_l1_s1             #Ek_l2_s1              Vk_l2_s1
      -2.172744440754        0.008079273394       -0.343070166939        0.374118415994
      -0.016365262533       -0.071958026194       -0.004830157040       -0.081476615160
       0.279587160584        0.360651837741        2.300662642900       -0.004430327579
