            #Ek_l1_s1              Vk_l1_s1
      -1.949988336932       -0.095754330383
      -0.415222078972        0.207609575634
      -0.049262269447        0.115651704813
      -0.004845719722        0.048754079957
       0.004824741913        0.048681232951
       0.049123649524        0.115524702346
       0.411054158341        0.206108516372
       1.952722832968       -0.103306049856
