            #Ek_l1_s1              Vk_l1_s1             #Ek_l1_s2              Vk_l1_s2
      -0.597313022476        0.302619894511       -2.877310298261       -0.000370285139
      -0.143299889523        0.234664038970       -0.696269493151       -0.219728415747
      -0.020937029678        0.138003567929       -0.236532115159        0.035032616920
       0.338008267805        0.128852739505       -0.372703136175        0.132033805778
       0.725289093777       -0.232650933682        0.051686291766        0.213520721369
       2.829572160751       -0.000000063457        0.425768126391        0.334105926474
