            #Ek_l1_s1              Vk_l1_s1             #Ek_l1_s2              Vk_l1_s2
      -0.747935279383        0.307588036774       -2.877310301142       -0.000103314263
      -0.258607504334        0.251358144507       -0.662424209318       -0.181414834925
      -0.130612613515        0.127010476007       -0.169686352299        0.041933713144
       0.261806848151        0.115677908399       -0.353959272848        0.150069551929
       0.622983398732       -0.215826171721        0.172491004686        0.222536851651
       2.829572160751       -0.000000063457        0.564706596678        0.340448903705
