            #Ek_l1_s1              Vk_l1_s1             #Ek_l2_s1              Vk_l2_s1
      -2.172740792710        0.007597461350       -0.227066547967        0.333760032497
      -0.005273207185       -0.125819285815        0.049865111488       -0.128842358178
       0.309504785709        0.342663771469        2.300663745279       -0.001497490042
