            #Ek_l1_s1              Vk_l1_s1
      -1.949419900403       -0.116443150818
      -0.434879660344        0.205259934332
      -0.048846831543        0.113491957900
      -0.004847534939        0.048764293745
       0.004830600422        0.048678839420
       0.048690098260        0.113353765719
       0.429279733412        0.203253550489
       1.952076421501       -0.124377864951
