            #Ek_l1_s1              Vk_l1_s1             #Ek_l1_s2              Vk_l1_s2
      -1.359100116050        0.378521600762       -3.877310301930       -0.000001421664
      -0.183870320065        0.183968111060       -1.640146626651        0.000001320446
      -0.027590222910        0.189898708094       -0.430790287549        0.110267646310
       0.407874843236        0.101361007755       -1.198504450669       -0.015524031900
       1.369340198569       -0.106174060086        0.045800794212        0.230464337889
       3.829572160751       -0.000000063457        0.878040298108        0.356809660380
