            #Ek_l1_s1              Vk_l1_s1             #Ek_l1_s2              Vk_l1_s2
      -1.449470260381        0.378186408945       -3.877310301872        0.000030211568
      -0.242798427526        0.178211367699       -1.640146626596       -0.000000442257
      -0.120288318520        0.184010536668       -0.317034915942        0.106160058569
       0.298086105494        0.099836643291       -1.198586457337        0.000498030423
       1.364647152456       -0.093497975098        0.140124847351        0.231981385422
       3.829572160751       -0.000000063457        1.040441417307        0.356098351417
