            #Ek_l1_s1              Vk_l1_s1
      -1.923742559052       -0.412801567781
      -0.449596405377        0.115480434587
      -0.019046941705        0.008227402315
      -0.003392212166        0.005142535621
       0.003219360799        0.005080946193
       0.018676160979        0.008299390556
       0.437996364549        0.112020474197
       1.922223058592       -0.414885692572
