            #Ek_l1_s1              Vk_l1_s1             #Ek_l1_s2              Vk_l1_s2
      -0.233865735936        0.261380493435       -2.477284086207        0.013653377142
       0.025690930825        0.100019745381       -0.379245963645        0.273452429713
       0.100242661858        0.080613471205       -0.133427283517        0.112188060013
       0.132244293406        0.113101520143       -0.099221868508        0.080245416789
       0.383049786551        0.273700264687       -0.025704817217        0.100219287576
       2.429572086666       -0.000915206200        0.234102920123        0.261437111945
