            #Ek_l1_s1              Vk_l1_s1             #Ek_l1_s2              Vk_l1_s2
      -0.222346709164        0.292769596520       -2.477269676345        0.022934226959
       0.065848239863        0.087037890778       -0.425313892251        0.293036061244
       0.100126063521        0.061102705379       -0.135173842919        0.088172512757
       0.134853818837        0.087877425525       -0.100176024970        0.061100358791
       0.424285801624        0.293015046257       -0.066182875693        0.086731471643
       2.429572042106       -0.001371174055        0.221325311761        0.292732195774
