            #Ek_l1_s1              Vk_l1_s1             #Ek_l2_s1              Vk_l2_s1
      -2.132104317746        0.199173005853       -0.167195483210        0.231777740354
      -0.062783840897       -0.168470316271        0.073029213708       -0.178112098489
       0.186467682359        0.243291496251        2.300663531716       -0.001273479193
