            #Ek_l1_s1              Vk_l1_s1
      -1.944370523066       -0.254934910969
      -0.480976512032        0.188679647898
      -0.048900707450        0.109298973806
      -0.004928949166        0.049155777748
       0.004840785698        0.048830496455
       0.048339845330        0.108921543284
       0.466548937638        0.185231391796
       1.946572559238       -0.259933144427
