            #Ek_l1_s1              Vk_l1_s1
      -1.942986683435       -0.280354867125
      -0.478175166017        0.174103377967
      -0.043870354298        0.098288619025
      -0.004736476218        0.047589355883
       0.004640917997        0.047259023651
       0.043354319736        0.098019961693
       0.463104676868        0.170407612067
       1.945023705002       -0.285028474638
