            #Ek_l1_s1              Vk_l1_s1             #Ek_l2_s1              Vk_l2_s1
      -2.172726416436        0.010620594787       -0.189388456742        0.306600685124
      -0.015938015384       -0.135691819783        0.066671622743       -0.154882920657
       0.238762259191        0.306520190405        2.300663874826       -0.000523912575
