            #Ek_l1_s1              Vk_l1_s1             #Ek_l2_s1              Vk_l2_s1
      -2.172670433830        0.012995366738       -0.194388796965        0.240090571432
      -0.072335131651       -0.178639836093        0.055234640771       -0.172496935811
       0.169578305374        0.236111682903        2.300663742446       -0.000824292867
