            #Ek_l1_s1              Vk_l1_s1             #Ek_l2_s1              Vk_l2_s1
      -1.228766418163        0.316858308289       -2.792343161920        0.322911117189
      -0.550918191321       -0.133936318672        0.468570008893       -0.100135466553
       2.921120719592        0.333327648870        1.139795488752       -0.323912825607
