            #Ek_l1_s1              Vk_l1_s1
      -1.924864361283       -0.407803238927
      -0.455106570435        0.091325311146
      -0.018157024411        0.008576778120
      -0.003183549563        0.005026446948
       0.003192621259        0.005036016832
       0.018310154589        0.008666066384
       0.443399648163        0.087921167993
       1.923325085682       -0.409612090524
