            #Ek_l1_s1              Vk_l1_s1
      -1.932715701571       -0.383762016747
      -0.422224238012        0.122047159534
      -0.028181292726        0.062441146165
      -0.003943643211        0.040937961917
       0.003857350763        0.040681729692
       0.027853248793        0.062400841349
       0.406815990394        0.118316762857
       1.932449321278       -0.386386132199
