            #Ek_l1_s1              Vk_l1_s1             #Ek_l1_s2              Vk_l1_s2
      -1.029822851985        0.325006421823       -3.177310301247       -0.000035040296
      -0.327018589671        0.258588886782       -0.941818107026       -0.063138563329
      -0.145520800561        0.152952456263       -0.307370960481        0.093289523493
       0.342550112036        0.121162517333       -0.576792930601        0.149666563173
       0.802947228335       -0.159880058045        0.180512512406        0.221547819554
       3.129572160751       -0.000000063457        0.673908637786        0.360267926234
