            #Ek_l1_s1              Vk_l1_s1             #Ek_l1_s2              Vk_l1_s2
      -0.773027963694        0.324197158490       -3.177310301340       -0.000028310222
      -0.184065241024        0.258203629731       -0.944385260697       -0.099062260678
      -0.035417141830        0.125722867331       -0.371705821519        0.075625828034
       0.426997147001        0.121364830998       -0.599267782433        0.160329497247
       0.829111493326       -0.174590393173        0.083243231820        0.222329488706
       3.129572160751       -0.000000063457        0.533187912967        0.355335666918
