            #Ek_l1_s1              Vk_l1_s1             #Ek_l2_s1              Vk_l2_s1
      -0.866814989320        0.305527199252       -2.628320836299        0.332843128966
      -0.254932078801       -0.146990103017        0.251492804406       -0.145426892135
       2.528297014462        0.325925703198        0.863020527321       -0.306933345016
