            #Ek_l1_s1              Vk_l1_s1             #Ek_l2_s1              Vk_l2_s1
      -1.300597032239        0.330504317987       -3.146468374142        0.331607898968
      -0.554825332794       -0.051288729788        0.530894418895       -0.065054783356
       2.953305839495        0.316523100675        1.367242442745       -0.335257645571
