            #Ek_l1_s1              Vk_l1_s1
      -1.927661882912       -0.402177526289
      -0.435345855788        0.116391784870
      -0.020485485652        0.042613766816
      -0.003356624756        0.035647389926
       0.003272372314        0.035426155253
       0.020199412921        0.042656453117
       0.421962983364        0.112972334490
       1.926656588047       -0.404301178067
