            #Ek_l1_s1              Vk_l1_s1
      -1.929435544306       -0.385791755574
      -0.462201929739        0.037335669006
      -0.022772501959        0.010750648770
      -0.003525482325        0.005737144440
       0.003431651586        0.005698706048
       0.022545135255        0.010776681675
       0.450127557382        0.034841163309
       1.927934208203       -0.386437568894
