            #Ek_l1_s1              Vk_l1_s1             #Ek_l1_s2              Vk_l1_s2
      -1.262514672836        0.364056293607       -3.577310301904       -0.000035130127
      -0.304401317590        0.202981871426       -1.340146421869        0.000789214514
      -0.136043866834        0.180749532788       -0.337694457968        0.110771421169
       0.334768865406        0.109494686537       -0.900553277335       -0.082344864252
       1.104729156505       -0.113138930908        0.158195016162        0.227369810069
       3.529572160751       -0.000000063457        0.877952319391        0.362790842220
