            #Ek_l1_s1              Vk_l1_s1             #Ek_l1_s2              Vk_l1_s2
      -1.160150823330        0.357498577459       -3.577310301914        0.000024994602
      -0.229788823546        0.220825200606       -1.340135356843       -0.005743216770
      -0.040701797268        0.177836804712       -0.437985293062        0.110046298290
       0.438162506707        0.110699152104       -0.907663052286        0.100282650777
       1.117675874779       -0.127794481684        0.064195544651        0.225305647330
       3.529572160751       -0.000000063457        0.721719858018        0.363804753831
