            #Ek_l1_s1              Vk_l1_s1             #Ek_l1_s2              Vk_l1_s2
      -1.016890185587        0.348969474338       -3.477310301968        0.000066520567
      -0.213857430491        0.229518300964       -1.240174820299       -0.009801770983
      -0.041033950989        0.164545886552       -0.436147646901        0.107802930863
       0.450474104135        0.116996095703       -0.819094993206        0.118237735504
       1.046032112868       -0.131489299082        0.070402534027        0.223725155145
       3.429572160751       -0.000000063457        0.671392048599        0.364077714407
