            #Ek_l1_s1              Vk_l1_s1             #Ek_l1_s2              Vk_l1_s2
      -1.260150823330        0.357498577459       -3.477310301914        0.000024994602
      -0.329788823546        0.220825200606       -1.240135356843       -0.005743216770
      -0.140701797268        0.177836804712       -0.337985293062        0.110046298290
       0.338162506707        0.110699152104       -0.807663052286        0.100282650777
       1.017675874779       -0.127794481684        0.164195544651        0.225305647330
       3.429572160751       -0.000000063457        0.821719858018        0.363804753831
