            #Ek_l1_s1              Vk_l1_s1
      -1.923899137780       -0.412147906288
      -0.450805211349        0.111112797720
      -0.017360346379        0.008094104965
      -0.003216375257        0.004936180827
       0.003023033500        0.004877838493
       0.017093321706        0.008186731590
       0.439199911060        0.107645795097
       1.922367169084       -0.414206265434
