            #Ek_l1_s1              Vk_l1_s1             #Ek_l2_s1              Vk_l2_s1
      -2.172707257276        0.014008590081       -0.159940088399        0.280724731109
      -0.020482423501       -0.151399251251        0.048615389044       -0.152605982991
       0.256380846745        0.300340649702        2.300663852144       -0.000471887871
