            #Ek_l1_s1              Vk_l1_s1             #Ek_l2_s1              Vk_l2_s1
      -2.172685747192        0.010629617944       -0.194374437029        0.265514414384
      -0.072931477222       -0.175007487361        0.048361041502       -0.167376724572
       0.149139482741        0.253890232449        2.300663820498       -0.000529157793
