            #Ek_l1_s1              Vk_l1_s1
      -1.925104696835       -0.406755113261
      -0.455990865383        0.086784567014
      -0.018306132300        0.008707980841
      -0.003169815889        0.005046418055
       0.003218631262        0.005067761296
       0.018519813929        0.008791704026
       0.444242894584        0.083450729053
       1.923562794799       -0.408450993232
