            #Ek_l1_s1              Vk_l1_s1             #Ek_l1_s2              Vk_l1_s2
      -0.632184288771        0.301308752672       -2.677310246197       -0.001150745169
      -0.215756940682        0.212909458018       -0.540340749837       -0.245542855302
      -0.095547098379        0.135615122839       -0.112866721653        0.035569094932
       0.193383122773        0.128813877931       -0.211352825244        0.122997805761
       0.581127806248       -0.254941862574        0.116678772553        0.190059972560
       2.629572160751       -0.000000063457        0.464484340821        0.329397205463
