            #Ek_l1_s1              Vk_l1_s1             #Ek_l1_s2              Vk_l1_s2
      -0.276552318686        0.319562006508       -2.677310048348       -0.002736451929
       0.032142778389        0.150176414314       -0.563958666227       -0.263234395416
       0.231003059133        0.108900806657       -0.199431809778        0.067790582579
       0.129561248993        0.009099760948       -0.282040197938        0.102756869967
       0.549423173538       -0.268550345935       -0.032015946822        0.150444875089
       2.629572160751        0.000000343973        0.277678079852        0.319745361792
