            #Ek_l1_s1              Vk_l1_s1
      -1.926467264348       -0.400409097638
      -0.459090967383        0.066967668125
      -0.019718815174        0.009407158183
      -0.003252145788        0.005271455038
       0.003354743120        0.005312660337
       0.020038543953        0.009476223909
       0.447204250170        0.063883723252
       1.924927995213       -0.401694841661
