            #Ek_l1_s1              Vk_l1_s1
      -1.931412307625       -0.375500743086
      -0.462812630314        0.026269527951
      -0.023032597325        0.011269914902
      -0.003430461801        0.005823257721
       0.003551403541        0.005870010670
       0.023180729891        0.011231386149
       0.450671086955        0.024275430540
       1.929915318105       -0.375860963980
