            #Ek_l1_s1              Vk_l1_s1             #Ek_l1_s2              Vk_l1_s2
      -0.133865735936        0.261380493435       -2.577284086207        0.013653377142
       0.125690930825        0.100019745381       -0.479245963645        0.273452429713
       0.200242661858        0.080613471205       -0.233427283517        0.112188060013
       0.232244293406        0.113101520143       -0.199221868508        0.080245416789
       0.483049786551        0.273700264687       -0.125704817217        0.100219287576
       2.529572086666       -0.000915206200        0.134102920123        0.261437111945
