            #Ek_l1_s1              Vk_l1_s1             #Ek_l1_s2              Vk_l1_s2
      -0.376552318686        0.319562006508       -2.577310048348       -0.002736451929
      -0.067857221611        0.150176414314       -0.463958666227       -0.263234395416
       0.131003059133        0.108900806657       -0.099431809778        0.067790582579
       0.029561248993        0.009099760948       -0.182040197938        0.102756869967
       0.449423173538       -0.268550345935        0.067984053178        0.150444875089
       2.529572160751        0.000000343973        0.377678079852        0.319745361792
