            #Ek_l1_s1              Vk_l1_s1             #Ek_l1_s2              Vk_l1_s2
      -0.322346709164        0.292769596520       -2.377269676345        0.022934226959
      -0.034151760137        0.087037890778       -0.325313892251        0.293036061244
       0.000126063521        0.061102705379       -0.035173842919        0.088172512757
       0.034853818837        0.087877425525       -0.000176024970        0.061100358791
       0.324285801624        0.293015046257        0.033817124307        0.086731471643
       2.329572042106       -0.001371174055        0.321325311761        0.292732195774
