            #Ek_l1_s1              Vk_l1_s1             #Ek_l1_s2              Vk_l1_s2
      -1.564235210941        0.254453171005       -2.377254863191       -0.011778927693
      -0.223508486296        0.200620848139       -0.921678252334        0.280321234293
       0.240737231738        0.188605131399       -0.399939278203        0.252122404225
       0.488788393253        0.292274330651       -0.231711454104        0.165405872839
       1.307032649866        0.199740701450        0.146364228734        0.136031883318
       2.322996640125        0.198788144528        0.560072610117        0.232220148792
