            #Ek_l1_s1              Vk_l1_s1
      -1.950380374423       -0.078669935315
      -0.395134517561        0.213587414731
      -0.050882233199        0.120058526088
      -0.004886956308        0.049105985894
       0.004864655449        0.049024769128
       0.050740764674        0.119930731831
       0.392132179240        0.212532297988
       1.953176939676       -0.085574132713
