            #Ek_l1_s1              Vk_l1_s1
      -1.950862921290       -0.051381824654
      -0.354327605258        0.224727836925
      -0.051064553636        0.123536051550
      -0.004842833905        0.048832665603
       0.004824923568        0.048766543092
       0.050943601909        0.123413959601
       0.352898888881        0.224288220695
       1.953749517373       -0.056507411748
