            #Ek_l1_s1              Vk_l1_s1
      -1.944316922936       -0.254798449957
      -0.481402254675        0.191803049808
      -0.051599200553        0.113683070480
      -0.005103769953        0.050117739444
       0.004827258919        0.049130671545
       0.050114489699        0.113037920553
       0.467109343436        0.188989883731
       1.946493951304       -0.260275566695
