            #Ek_l1_s1              Vk_l1_s1
      -1.937677890295       -0.351510911755
      -0.416251341878        0.138599551964
      -0.036993671401        0.083711136104
      -0.004438587120        0.045105233306
       0.004324149377        0.044724774033
       0.036456778849        0.083494072795
       0.399633308124        0.134904051644
       1.938125968079       -0.354727831215
