            #Ek_l1_s1              Vk_l1_s1             #Ek_l1_s2              Vk_l1_s2
      -0.532184288771        0.301308752672       -2.777310246197       -0.001150745169
      -0.115756940682        0.212909458018       -0.640340749837       -0.245542855302
       0.004452901621        0.135615122839       -0.212866721653        0.035569094932
       0.293383122773        0.128813877931       -0.311352825244        0.122997805761
       0.681127806248       -0.254941862574        0.016678772553        0.190059972560
       2.729572160751       -0.000000063457        0.364484340821        0.329397205463
