            #Ek_l1_s1              Vk_l1_s1             #Ek_l1_s2              Vk_l1_s2
      -0.697313022476        0.302619894511       -2.777310298261       -0.000370285139
      -0.243299889523        0.234664038970       -0.596269493151       -0.219728415747
      -0.120937029678        0.138003567929       -0.136532115159        0.035032616920
       0.238008267805        0.128852739505       -0.272703136175        0.132033805778
       0.625289093777       -0.232650933682        0.151686291766        0.213520721369
       2.729572160751       -0.000000063457        0.525768126391        0.334105926474
