            #Ek_l1_s1              Vk_l1_s1             #Ek_l1_s2              Vk_l1_s2
      -0.713705308517        0.314325545789       -3.077310301274       -0.000053260502
      -0.174153590367        0.260338686397       -0.850732280402       -0.141141759408
      -0.033493386596        0.122192678584       -0.328624329576        0.058818291039
       0.404696483381        0.122616536968       -0.527228024783        0.159425741017
       0.783215013667       -0.192435389270        0.081898110004        0.223953398718
       3.029572160751       -0.000000063457        0.499502412319        0.348456715104
